file 21276 1464978149                                           
version 2
run General-0-20160603-11:16:52-4343
attr c1ber 0
attr c2ber 0
attr configname General
attr datetime 20160603-11:16:52
attr experiment General
attr inifile omnetpp.ini
attr iterationvars "$c1ber=0, $c2ber=0"
attr iterationvars2 "$c1ber=0, $c2ber=0, $repetition=0"
attr measurement "$c1ber=0, $c2ber=0"
attr network TCP_t
attr processid 4343
attr repetition 0
attr replication #0
attr resultdir results
attr runnumber 0
attr seedset 0
vector 297  TCP_t.client2.tcp  "advertised window"  ETV
297	17138 15 28 28 0 0 1 65535 65535 65535 4294836225
vector 296  TCP_t.client2.tcp  "receive window"  ETV
296	17123 15 28 28 0 0 1 65535 65535 65535 4294836225
vector 299  TCP_t.client2.tcp  "sent ack"  ETV
299	17153 11 28 28 0 0 1 0 0 0 0
vector 228  TCP_t.server1.tcp  "rcvd seq"  ETV
228	20148 125 58 267 0.0004083 0.0081561 6 0 102 306 30808
vector 229  TCP_t.server1.tcp  "rcvd ack"  ETV
229	20273 129 58 267 0.0004083 0.0081561 6 0 604 2016 1113252
vector 225  TCP_t.server1.tcp  "advertised window"  ETV
225	19877 142 58 215 0.0004083 0.0072155 6 65536 65637 393618 25822535122
vector 223  TCP_t.server1.tcp  "send window"  ETV
223	19663 95 58 267 0.0004083 0.0081561 4 65535 65535 262140 17179344900
vector 224  TCP_t.server1.tcp  "receive window"  ETV
224	19758 119 58 215 0.0004083 0.0072155 5 65535 65535 327675 21474181125
vector 227  TCP_t.server1.tcp  "sent ack"  ETV
227	20041 107 58 215 0.0004083 0.0072155 5 1 102 407 41211
vector 300  TCP_t.client2.tcp  "rcvd seq"  ETV
300	17164 19 94 94 0.0007746 0.0007746 1 0 0 0 0
vector 301  TCP_t.client2.tcp  "rcvd ack"  ETV
301	17183 19 94 94 0.0007746 0.0007746 1 1 1 1 1
vector 230  TCP_t.server1.tcp  "unacked bytes"  ETV
230	20402 102 122 267 0.0011929 0.0081561 5 0 500 501 250001
vector 231  TCP_t.server1.tcp  "rcvd dupAcks"  ETV
231	20504 80 137 267 0.0021809 0.0081561 4 0 0 0 0
vector 226  TCP_t.server1.tcp  "sent seq"  ETV
226	20019 22 140 140 0.0021809 0.0021809 1 103 103 103 10609
vector 242  TCP_t.server1.tcp  "measured RTT"  ETV
242	19545 28 202 202 0.0070275 0.0070275 1 0.0048466 0.0048466 0.0048466 2.348953156e-05
vector 243  TCP_t.server1.tcp  "smoothed RTT"  ETV
243	19573 30 202 202 0.0070275 0.0070275 1 0.000605825 0.000605825 0.000605825 3.67023930625e-07
vector 244  TCP_t.server1.tcp  RTTVAR  ETV
244	19603 30 202 202 0.0070275 0.0070275 1 0.656855825 0.656855825 0.656855825 0.43145957483643
vector 245  TCP_t.server1.tcp  RTO  ETV
245	19633 30 202 202 0.0070275 0.0070275 1 2.628029125 2.628029125 2.628029125 6.9065370818483
vector 240  TCP_t.server1.tcp  cwnd  ETV
240	19499 46 202 267 0.0070275 0.0081561 2 2904 4356 7260 27407952
vector 358  TCP_t.client2.tcp  tcpRcvQueueBytes  ETV
358	21256 20 270 270 1.0007746 1.0007746 1 0 0 0 0
vector 345  TCP_t.client2.tcp  "advertised window"  ETV
345	21167 24 270 270 1.0007746 1.0007746 1 65535 65535 65535 4294836225
vector 344  TCP_t.client2.tcp  "receive window"  ETV
344	21143 24 270 270 1.0007746 1.0007746 1 65535 65535 65535 4294836225
vector 347  TCP_t.client2.tcp  "sent ack"  ETV
347	21191 20 270 270 1.0007746 1.0007746 1 0 0 0 0
vector 348  TCP_t.client2.tcp  "rcvd seq"  ETV
348	21211 20 305 305 1.0013992 1.0013992 1 0 0 0 0
vector 349  TCP_t.client2.tcp  "rcvd ack"  ETV
349	21231 25 305 305 1.0013992 1.0013992 1 250194 250194 250194 62597037636
