file 3641 1465949839                                            
version 2
run General-0-20160614-17:16:53-10727
attr c1ber 0
attr c2ber 0
attr configname General
attr datetime 20160614-17:16:53
attr experiment General
attr inifile omnetpp.ini
attr iterationvars "$c1ber=0, $c2ber=0"
attr iterationvars2 "$c1ber=0, $c2ber=0, $repetition=0"
attr measurement "$c1ber=0, $c2ber=0"
attr network TCP_t
attr processid 10727
attr repetition 0
attr replication #0
attr resultdir results
attr runnumber 0
attr seedset 0

vector 0  TCP_t.client1.pppg$o[0].channel  busy:vector  ETV
attr interpolationmode  sample-hold
attr source  channelBusy
vector 2  TCP_t.client2.pppg$o[0].channel  busy:vector  ETV
attr interpolationmode  sample-hold
attr source  channelBusy
vector 4  TCP_t.client3.pppg$o[0].channel  busy:vector  ETV
attr interpolationmode  sample-hold
attr source  channelBusy
vector 6  TCP_t.client4.pppg$o[0].channel  busy:vector  ETV
attr interpolationmode  sample-hold
attr source  channelBusy
vector 11  TCP_t.server1.pppg$o[0].channel  busy:vector  ETV
attr interpolationmode  sample-hold
attr source  channelBusy
vector 13  TCP_t.server2.pppg$o[0].channel  busy:vector  ETV
attr interpolationmode  sample-hold
attr source  channelBusy
vector 1  TCP_t.router1.pppg$o[0].channel  busy:vector  ETV
attr interpolationmode  sample-hold
attr source  channelBusy
vector 3  TCP_t.router1.pppg$o[1].channel  busy:vector  ETV
attr interpolationmode  sample-hold
attr source  channelBusy
vector 5  TCP_t.router1.pppg$o[2].channel  busy:vector  ETV
attr interpolationmode  sample-hold
attr source  channelBusy
vector 7  TCP_t.router1.pppg$o[3].channel  busy:vector  ETV
attr interpolationmode  sample-hold
attr source  channelBusy
vector 8  TCP_t.router1.pppg$o[4].channel  busy:vector  ETV
attr interpolationmode  sample-hold
attr source  channelBusy
vector 9  TCP_t.router2.pppg$o[0].channel  busy:vector  ETV
attr interpolationmode  sample-hold
attr source  channelBusy
vector 10  TCP_t.router2.pppg$o[1].channel  busy:vector  ETV
attr interpolationmode  sample-hold
attr source  channelBusy
vector 12  TCP_t.router2.pppg$o[2].channel  busy:vector  ETV
attr interpolationmode  sample-hold
attr source  channelBusy
vector 26  TCP_t.client1.ppp[0].queue  queueLength:vector  ETV
attr interpolationmode  sample-hold
attr title  "queue length, vector"
vector 27  TCP_t.client1.ppp[0].ppp  txState:vector  ETV
attr interpolationmode  sample-hold
attr title  "tx state, vector"
vector 46  TCP_t.client2.ppp[0].queue  queueLength:vector  ETV
attr interpolationmode  sample-hold
attr title  "queue length, vector"
vector 47  TCP_t.client2.ppp[0].ppp  txState:vector  ETV
attr interpolationmode  sample-hold
attr title  "tx state, vector"
vector 62  TCP_t.client3.ppp[0].queue  queueLength:vector  ETV
attr interpolationmode  sample-hold
attr title  "queue length, vector"
vector 63  TCP_t.client3.ppp[0].ppp  txState:vector  ETV
attr interpolationmode  sample-hold
attr title  "tx state, vector"
vector 78  TCP_t.client4.ppp[0].queue  queueLength:vector  ETV
attr interpolationmode  sample-hold
attr title  "queue length, vector"
vector 79  TCP_t.client4.ppp[0].ppp  txState:vector  ETV
attr interpolationmode  sample-hold
attr title  "tx state, vector"
vector 97  TCP_t.server1.ppp[0].queue  queueLength:vector  ETV
attr interpolationmode  sample-hold
attr title  "queue length, vector"
vector 98  TCP_t.server1.ppp[0].ppp  txState:vector  ETV
attr interpolationmode  sample-hold
attr title  "tx state, vector"
0	3435 8 0 0 0 0 1 0 0 0 0
1	3443 8 0 0 0 0 1 0 0 0 0
2	3451 8 0 0 0 0 1 0 0 0 0
3	3459 8 0 0 0 0 1 0 0 0 0
4	3467 8 0 0 0 0 1 0 0 0 0
5	3475 8 0 0 0 0 1 0 0 0 0
6	3483 8 0 0 0 0 1 0 0 0 0
7	3491 8 0 0 0 0 1 0 0 0 0
8	3499 8 0 0 0 0 1 0 0 0 0
9	3507 8 0 0 0 0 1 0 0 0 0
10	3515 9 0 0 0 0 1 0 0 0 0
11	3524 9 0 0 0 0 1 0 0 0 0
12	3533 9 0 0 0 0 1 0 0 0 0
13	3542 9 0 0 0 0 1 0 0 0 0
26	3551 9 0 0 0 0 1 0 0 0 0
27	3560 9 0 0 0 0 1 0 0 0 0
46	3569 9 0 0 0 0 1 0 0 0 0
47	3578 9 0 0 0 0 1 0 0 0 0
62	3587 9 0 0 0 0 1 0 0 0 0
63	3596 9 0 0 0 0 1 0 0 0 0
78	3605 9 0 0 0 0 1 0 0 0 0
79	3614 9 0 0 0 0 1 0 0 0 0
97	3623 9 0 0 0 0 1 0 0 0 0
98	3632 9 0 0 0 0 1 0 0 0 0
