<<<<<<< HEAD
file 21276 1464978149                                           
version 2
run General-0-20160603-11:16:52-4343
attr c1ber 0
attr c2ber 0
attr configname General
attr datetime 20160603-11:16:52
=======
file 163252 1467156633                                          
version 2
run General-0-20160628-16:16:38-9371
attr c1ber 0
attr c2ber 0
attr configname General
attr datetime 20160628-16:16:38
>>>>>>> 31a100f0d6c5398e12e1104b91489073a3b9f570
attr experiment General
attr inifile omnetpp.ini
attr iterationvars "$c1ber=0, $c2ber=0"
attr iterationvars2 "$c1ber=0, $c2ber=0, $repetition=0"
attr measurement "$c1ber=0, $c2ber=0"
attr network TCP_t
<<<<<<< HEAD
attr processid 4343
=======
attr processid 9371
>>>>>>> 31a100f0d6c5398e12e1104b91489073a3b9f570
attr repetition 0
attr replication #0
attr resultdir results
attr runnumber 0
attr seedset 0
<<<<<<< HEAD
vector 297  TCP_t.client2.tcp  "advertised window"  ETV
297	17138 15 28 28 0 0 1 65535 65535 65535 4294836225
vector 296  TCP_t.client2.tcp  "receive window"  ETV
296	17123 15 28 28 0 0 1 65535 65535 65535 4294836225
vector 299  TCP_t.client2.tcp  "sent ack"  ETV
299	17153 11 28 28 0 0 1 0 0 0 0
vector 228  TCP_t.server1.tcp  "rcvd seq"  ETV
228	20148 125 58 267 0.0004083 0.0081561 6 0 102 306 30808
vector 229  TCP_t.server1.tcp  "rcvd ack"  ETV
229	20273 129 58 267 0.0004083 0.0081561 6 0 604 2016 1113252
vector 225  TCP_t.server1.tcp  "advertised window"  ETV
225	19877 142 58 215 0.0004083 0.0072155 6 65536 65637 393618 25822535122
vector 223  TCP_t.server1.tcp  "send window"  ETV
223	19663 95 58 267 0.0004083 0.0081561 4 65535 65535 262140 17179344900
vector 224  TCP_t.server1.tcp  "receive window"  ETV
224	19758 119 58 215 0.0004083 0.0072155 5 65535 65535 327675 21474181125
vector 227  TCP_t.server1.tcp  "sent ack"  ETV
227	20041 107 58 215 0.0004083 0.0072155 5 1 102 407 41211
vector 300  TCP_t.client2.tcp  "rcvd seq"  ETV
300	17164 19 94 94 0.0007746 0.0007746 1 0 0 0 0
vector 301  TCP_t.client2.tcp  "rcvd ack"  ETV
301	17183 19 94 94 0.0007746 0.0007746 1 1 1 1 1
vector 230  TCP_t.server1.tcp  "unacked bytes"  ETV
230	20402 102 122 267 0.0011929 0.0081561 5 0 500 501 250001
vector 231  TCP_t.server1.tcp  "rcvd dupAcks"  ETV
231	20504 80 137 267 0.0021809 0.0081561 4 0 0 0 0
vector 226  TCP_t.server1.tcp  "sent seq"  ETV
226	20019 22 140 140 0.0021809 0.0021809 1 103 103 103 10609
vector 242  TCP_t.server1.tcp  "measured RTT"  ETV
242	19545 28 202 202 0.0070275 0.0070275 1 0.0048466 0.0048466 0.0048466 2.348953156e-05
vector 243  TCP_t.server1.tcp  "smoothed RTT"  ETV
243	19573 30 202 202 0.0070275 0.0070275 1 0.000605825 0.000605825 0.000605825 3.67023930625e-07
vector 244  TCP_t.server1.tcp  RTTVAR  ETV
244	19603 30 202 202 0.0070275 0.0070275 1 0.656855825 0.656855825 0.656855825 0.43145957483643
vector 245  TCP_t.server1.tcp  RTO  ETV
245	19633 30 202 202 0.0070275 0.0070275 1 2.628029125 2.628029125 2.628029125 6.9065370818483
vector 240  TCP_t.server1.tcp  cwnd  ETV
240	19499 46 202 267 0.0070275 0.0081561 2 2904 4356 7260 27407952
vector 358  TCP_t.client2.tcp  tcpRcvQueueBytes  ETV
358	21256 20 270 270 1.0007746 1.0007746 1 0 0 0 0
vector 345  TCP_t.client2.tcp  "advertised window"  ETV
345	21167 24 270 270 1.0007746 1.0007746 1 65535 65535 65535 4294836225
vector 344  TCP_t.client2.tcp  "receive window"  ETV
344	21143 24 270 270 1.0007746 1.0007746 1 65535 65535 65535 4294836225
vector 347  TCP_t.client2.tcp  "sent ack"  ETV
347	21191 20 270 270 1.0007746 1.0007746 1 0 0 0 0
vector 348  TCP_t.client2.tcp  "rcvd seq"  ETV
348	21211 20 305 305 1.0013992 1.0013992 1 0 0 0 0
vector 349  TCP_t.client2.tcp  "rcvd ack"  ETV
349	21231 25 305 305 1.0013992 1.0013992 1 250194 250194 250194 62597037636
=======

vector 0  TCP_t.client1.pppg$o[0].channel  busy:vector  ETV
attr interpolationmode  sample-hold
attr source  channelBusy
vector 2  TCP_t.client2.pppg$o[0].channel  busy:vector  ETV
attr interpolationmode  sample-hold
attr source  channelBusy
vector 4  TCP_t.client3.pppg$o[0].channel  busy:vector  ETV
attr interpolationmode  sample-hold
attr source  channelBusy
vector 6  TCP_t.client4.pppg$o[0].channel  busy:vector  ETV
attr interpolationmode  sample-hold
attr source  channelBusy
vector 11  TCP_t.server1.pppg$o[0].channel  busy:vector  ETV
attr interpolationmode  sample-hold
attr source  channelBusy
vector 13  TCP_t.server2.pppg$o[0].channel  busy:vector  ETV
attr interpolationmode  sample-hold
attr source  channelBusy
vector 1  TCP_t.router1.pppg$o[0].channel  busy:vector  ETV
attr interpolationmode  sample-hold
attr source  channelBusy
vector 3  TCP_t.router1.pppg$o[1].channel  busy:vector  ETV
attr interpolationmode  sample-hold
attr source  channelBusy
vector 5  TCP_t.router1.pppg$o[2].channel  busy:vector  ETV
attr interpolationmode  sample-hold
attr source  channelBusy
vector 7  TCP_t.router1.pppg$o[3].channel  busy:vector  ETV
attr interpolationmode  sample-hold
attr source  channelBusy
vector 8  TCP_t.router1.pppg$o[4].channel  busy:vector  ETV
attr interpolationmode  sample-hold
attr source  channelBusy
vector 9  TCP_t.router2.pppg$o[0].channel  busy:vector  ETV
attr interpolationmode  sample-hold
attr source  channelBusy
vector 10  TCP_t.router2.pppg$o[1].channel  busy:vector  ETV
attr interpolationmode  sample-hold
attr source  channelBusy
vector 12  TCP_t.router2.pppg$o[2].channel  busy:vector  ETV
attr interpolationmode  sample-hold
attr source  channelBusy
vector 26  TCP_t.client1.ppp[0].queue  queueLength:vector  ETV
attr interpolationmode  sample-hold
attr title  "queue length, vector"
vector 27  TCP_t.client1.ppp[0].ppp  txState:vector  ETV
attr interpolationmode  sample-hold
attr title  "tx state, vector"
vector 46  TCP_t.client2.ppp[0].queue  queueLength:vector  ETV
attr interpolationmode  sample-hold
attr title  "queue length, vector"
vector 47  TCP_t.client2.ppp[0].ppp  txState:vector  ETV
attr interpolationmode  sample-hold
attr title  "tx state, vector"
vector 62  TCP_t.client3.ppp[0].queue  queueLength:vector  ETV
attr interpolationmode  sample-hold
attr title  "queue length, vector"
vector 63  TCP_t.client3.ppp[0].ppp  txState:vector  ETV
attr interpolationmode  sample-hold
attr title  "tx state, vector"
vector 78  TCP_t.client4.ppp[0].queue  queueLength:vector  ETV
attr interpolationmode  sample-hold
attr title  "queue length, vector"
vector 79  TCP_t.client4.ppp[0].ppp  txState:vector  ETV
attr interpolationmode  sample-hold
attr title  "tx state, vector"
vector 97  TCP_t.server1.ppp[0].queue  queueLength:vector  ETV
attr interpolationmode  sample-hold
attr title  "queue length, vector"
vector 98  TCP_t.server1.ppp[0].ppp  txState:vector  ETV
attr interpolationmode  sample-hold
attr title  "tx state, vector"
vector 113  TCP_t.server2.ppp[0].queue  queueLength:vector  ETV
attr interpolationmode  sample-hold
attr title  "queue length, vector"
vector 114  TCP_t.server2.ppp[0].ppp  txState:vector  ETV
attr interpolationmode  sample-hold
attr title  "tx state, vector"
vector 129  TCP_t.router1.ppp[0].queue  queueLength:vector  ETV
attr interpolationmode  sample-hold
attr title  "queue length, vector"
vector 130  TCP_t.router1.ppp[0].ppp  txState:vector  ETV
attr interpolationmode  sample-hold
attr title  "tx state, vector"
vector 140  TCP_t.router1.ppp[1].queue  queueLength:vector  ETV
attr interpolationmode  sample-hold
attr title  "queue length, vector"
vector 141  TCP_t.router1.ppp[1].ppp  txState:vector  ETV
attr interpolationmode  sample-hold
attr title  "tx state, vector"
vector 151  TCP_t.router1.ppp[2].queue  queueLength:vector  ETV
attr interpolationmode  sample-hold
attr title  "queue length, vector"
vector 152  TCP_t.router1.ppp[2].ppp  txState:vector  ETV
attr interpolationmode  sample-hold
attr title  "tx state, vector"
vector 162  TCP_t.router1.ppp[3].queue  queueLength:vector  ETV
attr interpolationmode  sample-hold
attr title  "queue length, vector"
vector 163  TCP_t.router1.ppp[3].ppp  txState:vector  ETV
attr interpolationmode  sample-hold
attr title  "tx state, vector"
vector 173  TCP_t.router1.ppp[4].queue  queueLength:vector  ETV
attr interpolationmode  sample-hold
attr title  "queue length, vector"
vector 174  TCP_t.router1.ppp[4].ppp  txState:vector  ETV
attr interpolationmode  sample-hold
attr title  "tx state, vector"
vector 189  TCP_t.router2.ppp[0].queue  queueLength:vector  ETV
attr interpolationmode  sample-hold
attr title  "queue length, vector"
vector 190  TCP_t.router2.ppp[0].ppp  txState:vector  ETV
attr interpolationmode  sample-hold
attr title  "tx state, vector"
vector 200  TCP_t.router2.ppp[1].queue  queueLength:vector  ETV
attr interpolationmode  sample-hold
attr title  "queue length, vector"
vector 201  TCP_t.router2.ppp[1].ppp  txState:vector  ETV
attr interpolationmode  sample-hold
attr title  "tx state, vector"
vector 211  TCP_t.router2.ppp[2].queue  queueLength:vector  ETV
attr interpolationmode  sample-hold
attr title  "queue length, vector"
vector 212  TCP_t.router2.ppp[2].ppp  txState:vector  ETV
attr interpolationmode  sample-hold
attr title  "tx state, vector"
vector 17  TCP_t.client1.tcpApp[0]  numActiveSessions:vector  ETV
attr interpolationmode  sample-hold
attr source  sum(connect)
attr title  "number of active sessions, vector"
vector 37  TCP_t.client2.tcpApp[0]  numActiveSessions:vector  ETV
attr interpolationmode  sample-hold
attr source  sum(connect)
attr title  "number of active sessions, vector"
vector 286  TCP_t.client1.tcp  tcpRcvQueueBytes  ETV
vector 273  TCP_t.client1.tcp  "advertised window"  ETV
vector 272  TCP_t.client1.tcp  "receive window"  ETV
vector 275  TCP_t.client1.tcp  "sent ack"  ETV
vector 310  TCP_t.client2.tcp  tcpRcvQueueBytes  ETV
vector 297  TCP_t.client2.tcp  "advertised window"  ETV
vector 296  TCP_t.client2.tcp  "receive window"  ETV
vector 299  TCP_t.client2.tcp  "sent ack"  ETV
vector 23  TCP_t.client1.ppp[0].queue  rcvdPk:vector(packetBytes)  ETV
attr interpolationmode  none
attr title  "received packets, vector(packetBytes)"
vector 25  TCP_t.client1.ppp[0].queue  queueingTime:vector  ETV
attr interpolationmode  none
attr title  "queueing time, vector"
vector 43  TCP_t.client2.ppp[0].queue  rcvdPk:vector(packetBytes)  ETV
attr interpolationmode  none
attr title  "received packets, vector(packetBytes)"
vector 45  TCP_t.client2.ppp[0].queue  queueingTime:vector  ETV
attr interpolationmode  none
attr title  "queueing time, vector"
vector 32  TCP_t.client1.ppp[0].ppp  rcvdPkFromHL:vector(packetBytes)  ETV
attr interpolationmode  none
attr source  packetReceivedFromUpper
attr title  "packets received from higher layer, vector(packetBytes)"
vector 28  TCP_t.client1.ppp[0].ppp  txPk:vector(packetBytes)  ETV
attr interpolationmode  none
attr source  packetSentToLower
attr title  "packets transmitted, vector(packetBytes)"
vector 52  TCP_t.client2.ppp[0].ppp  rcvdPkFromHL:vector(packetBytes)  ETV
attr interpolationmode  none
attr source  packetReceivedFromUpper
attr title  "packets received from higher layer, vector(packetBytes)"
vector 48  TCP_t.client2.ppp[0].ppp  txPk:vector(packetBytes)  ETV
attr interpolationmode  none
attr source  packetSentToLower
attr title  "packets transmitted, vector(packetBytes)"
vector 132  TCP_t.router1.ppp[0].ppp  rxPkOk:vector(packetBytes)  ETV
attr interpolationmode  none
attr source  rxPkOk
attr title  "packets received OK, vector(packetBytes)"
vector 136  TCP_t.router1.ppp[0].ppp  passedUpPk:vector(packetBytes)  ETV
attr interpolationmode  none
attr source  packetSentToUpper
attr title  "packets passed to higher layer, vector(packetBytes)"
vector 143  TCP_t.router1.ppp[1].ppp  rxPkOk:vector(packetBytes)  ETV
attr interpolationmode  none
attr source  rxPkOk
attr title  "packets received OK, vector(packetBytes)"
vector 147  TCP_t.router1.ppp[1].ppp  passedUpPk:vector(packetBytes)  ETV
attr interpolationmode  none
attr source  packetSentToUpper
attr title  "packets passed to higher layer, vector(packetBytes)"
vector 170  TCP_t.router1.ppp[4].queue  rcvdPk:vector(packetBytes)  ETV
attr interpolationmode  none
attr title  "received packets, vector(packetBytes)"
vector 172  TCP_t.router1.ppp[4].queue  queueingTime:vector  ETV
attr interpolationmode  none
attr title  "queueing time, vector"
vector 179  TCP_t.router1.ppp[4].ppp  rcvdPkFromHL:vector(packetBytes)  ETV
attr interpolationmode  none
attr source  packetReceivedFromUpper
attr title  "packets received from higher layer, vector(packetBytes)"
vector 175  TCP_t.router1.ppp[4].ppp  txPk:vector(packetBytes)  ETV
attr interpolationmode  none
attr source  packetSentToLower
attr title  "packets transmitted, vector(packetBytes)"
vector 192  TCP_t.router2.ppp[0].ppp  rxPkOk:vector(packetBytes)  ETV
attr interpolationmode  none
attr source  rxPkOk
attr title  "packets received OK, vector(packetBytes)"
vector 196  TCP_t.router2.ppp[0].ppp  passedUpPk:vector(packetBytes)  ETV
attr interpolationmode  none
attr source  packetSentToUpper
attr title  "packets passed to higher layer, vector(packetBytes)"
vector 197  TCP_t.router2.ppp[1].queue  rcvdPk:vector(packetBytes)  ETV
attr interpolationmode  none
attr title  "received packets, vector(packetBytes)"
vector 199  TCP_t.router2.ppp[1].queue  queueingTime:vector  ETV
attr interpolationmode  none
attr title  "queueing time, vector"
vector 206  TCP_t.router2.ppp[1].ppp  rcvdPkFromHL:vector(packetBytes)  ETV
attr interpolationmode  none
attr source  packetReceivedFromUpper
attr title  "packets received from higher layer, vector(packetBytes)"
vector 202  TCP_t.router2.ppp[1].ppp  txPk:vector(packetBytes)  ETV
attr interpolationmode  none
attr source  packetSentToLower
attr title  "packets transmitted, vector(packetBytes)"
vector 208  TCP_t.router2.ppp[2].queue  rcvdPk:vector(packetBytes)  ETV
attr interpolationmode  none
attr title  "received packets, vector(packetBytes)"
vector 210  TCP_t.router2.ppp[2].queue  queueingTime:vector  ETV
attr interpolationmode  none
attr title  "queueing time, vector"
vector 217  TCP_t.router2.ppp[2].ppp  rcvdPkFromHL:vector(packetBytes)  ETV
attr interpolationmode  none
attr source  packetReceivedFromUpper
attr title  "packets received from higher layer, vector(packetBytes)"
vector 213  TCP_t.router2.ppp[2].ppp  txPk:vector(packetBytes)  ETV
attr interpolationmode  none
attr source  packetSentToLower
attr title  "packets transmitted, vector(packetBytes)"
vector 100  TCP_t.server1.ppp[0].ppp  rxPkOk:vector(packetBytes)  ETV
attr interpolationmode  none
attr source  rxPkOk
attr title  "packets received OK, vector(packetBytes)"
vector 104  TCP_t.server1.ppp[0].ppp  passedUpPk:vector(packetBytes)  ETV
attr interpolationmode  none
attr source  packetSentToUpper
attr title  "packets passed to higher layer, vector(packetBytes)"
vector 228  TCP_t.server1.tcp  "rcvd seq"  ETV
vector 229  TCP_t.server1.tcp  "rcvd ack"  ETV
vector 225  TCP_t.server1.tcp  "advertised window"  ETV
vector 223  TCP_t.server1.tcp  "send window"  ETV
vector 238  TCP_t.server1.tcp  tcpRcvQueueBytes  ETV
vector 224  TCP_t.server1.tcp  "receive window"  ETV
vector 227  TCP_t.server1.tcp  "sent ack"  ETV
vector 94  TCP_t.server1.ppp[0].queue  rcvdPk:vector(packetBytes)  ETV
attr interpolationmode  none
attr title  "received packets, vector(packetBytes)"
vector 96  TCP_t.server1.ppp[0].queue  queueingTime:vector  ETV
attr interpolationmode  none
attr title  "queueing time, vector"
vector 103  TCP_t.server1.ppp[0].ppp  rcvdPkFromHL:vector(packetBytes)  ETV
attr interpolationmode  none
attr source  packetReceivedFromUpper
attr title  "packets received from higher layer, vector(packetBytes)"
vector 99  TCP_t.server1.ppp[0].ppp  txPk:vector(packetBytes)  ETV
attr interpolationmode  none
attr source  packetSentToLower
attr title  "packets transmitted, vector(packetBytes)"
vector 116  TCP_t.server2.ppp[0].ppp  rxPkOk:vector(packetBytes)  ETV
attr interpolationmode  none
attr source  rxPkOk
attr title  "packets received OK, vector(packetBytes)"
vector 120  TCP_t.server2.ppp[0].ppp  passedUpPk:vector(packetBytes)  ETV
attr interpolationmode  none
attr source  packetSentToUpper
attr title  "packets passed to higher layer, vector(packetBytes)"
vector 110  TCP_t.server2.ppp[0].queue  rcvdPk:vector(packetBytes)  ETV
attr interpolationmode  none
attr title  "received packets, vector(packetBytes)"
vector 112  TCP_t.server2.ppp[0].queue  queueingTime:vector  ETV
attr interpolationmode  none
attr title  "queueing time, vector"
vector 119  TCP_t.server2.ppp[0].ppp  rcvdPkFromHL:vector(packetBytes)  ETV
attr interpolationmode  none
attr source  packetReceivedFromUpper
attr title  "packets received from higher layer, vector(packetBytes)"
vector 115  TCP_t.server2.ppp[0].ppp  txPk:vector(packetBytes)  ETV
attr interpolationmode  none
attr source  packetSentToLower
attr title  "packets transmitted, vector(packetBytes)"
vector 203  TCP_t.router2.ppp[1].ppp  rxPkOk:vector(packetBytes)  ETV
attr interpolationmode  none
attr source  rxPkOk
attr title  "packets received OK, vector(packetBytes)"
vector 207  TCP_t.router2.ppp[1].ppp  passedUpPk:vector(packetBytes)  ETV
attr interpolationmode  none
attr source  packetSentToUpper
attr title  "packets passed to higher layer, vector(packetBytes)"
vector 186  TCP_t.router2.ppp[0].queue  rcvdPk:vector(packetBytes)  ETV
attr interpolationmode  none
attr title  "received packets, vector(packetBytes)"
vector 188  TCP_t.router2.ppp[0].queue  queueingTime:vector  ETV
attr interpolationmode  none
attr title  "queueing time, vector"
vector 195  TCP_t.router2.ppp[0].ppp  rcvdPkFromHL:vector(packetBytes)  ETV
attr interpolationmode  none
attr source  packetReceivedFromUpper
attr title  "packets received from higher layer, vector(packetBytes)"
vector 191  TCP_t.router2.ppp[0].ppp  txPk:vector(packetBytes)  ETV
attr interpolationmode  none
attr source  packetSentToLower
attr title  "packets transmitted, vector(packetBytes)"
vector 214  TCP_t.router2.ppp[2].ppp  rxPkOk:vector(packetBytes)  ETV
attr interpolationmode  none
attr source  rxPkOk
attr title  "packets received OK, vector(packetBytes)"
vector 218  TCP_t.router2.ppp[2].ppp  passedUpPk:vector(packetBytes)  ETV
attr interpolationmode  none
attr source  packetSentToUpper
attr title  "packets passed to higher layer, vector(packetBytes)"
vector 176  TCP_t.router1.ppp[4].ppp  rxPkOk:vector(packetBytes)  ETV
attr interpolationmode  none
attr source  rxPkOk
attr title  "packets received OK, vector(packetBytes)"
vector 180  TCP_t.router1.ppp[4].ppp  passedUpPk:vector(packetBytes)  ETV
attr interpolationmode  none
attr source  packetSentToUpper
attr title  "packets passed to higher layer, vector(packetBytes)"
vector 126  TCP_t.router1.ppp[0].queue  rcvdPk:vector(packetBytes)  ETV
attr interpolationmode  none
attr title  "received packets, vector(packetBytes)"
vector 128  TCP_t.router1.ppp[0].queue  queueingTime:vector  ETV
attr interpolationmode  none
attr title  "queueing time, vector"
vector 135  TCP_t.router1.ppp[0].ppp  rcvdPkFromHL:vector(packetBytes)  ETV
attr interpolationmode  none
attr source  packetReceivedFromUpper
attr title  "packets received from higher layer, vector(packetBytes)"
vector 131  TCP_t.router1.ppp[0].ppp  txPk:vector(packetBytes)  ETV
attr interpolationmode  none
attr source  packetSentToLower
attr title  "packets transmitted, vector(packetBytes)"
vector 137  TCP_t.router1.ppp[1].queue  rcvdPk:vector(packetBytes)  ETV
attr interpolationmode  none
attr title  "received packets, vector(packetBytes)"
vector 139  TCP_t.router1.ppp[1].queue  queueingTime:vector  ETV
attr interpolationmode  none
attr title  "queueing time, vector"
vector 146  TCP_t.router1.ppp[1].ppp  rcvdPkFromHL:vector(packetBytes)  ETV
attr interpolationmode  none
attr source  packetReceivedFromUpper
attr title  "packets received from higher layer, vector(packetBytes)"
vector 142  TCP_t.router1.ppp[1].ppp  txPk:vector(packetBytes)  ETV
attr interpolationmode  none
attr source  packetSentToLower
attr title  "packets transmitted, vector(packetBytes)"
vector 49  TCP_t.client2.ppp[0].ppp  rxPkOk:vector(packetBytes)  ETV
attr interpolationmode  none
attr source  rxPkOk
attr title  "packets received OK, vector(packetBytes)"
vector 53  TCP_t.client2.ppp[0].ppp  passedUpPk:vector(packetBytes)  ETV
attr interpolationmode  none
attr source  packetSentToUpper
attr title  "packets passed to higher layer, vector(packetBytes)"
vector 300  TCP_t.client2.tcp  "rcvd seq"  ETV
vector 301  TCP_t.client2.tcp  "rcvd ack"  ETV
296	17123 15 28 28 0 0 1 65535 65535 65535 4294836225
297	17138 15 28 28 0 0 1 65535 65535 65535 4294836225
299	17153 11 28 28 0 0 1 0 0 0 0
300	17164 19 94 94 0.0007746 0.0007746 1 0 0 0 0
301	17183 19 94 94 0.0007746 0.0007746 1 1 1 1 1
310	17202 11 28 28 0 0 1 0 0 0 0
vector 29  TCP_t.client1.ppp[0].ppp  rxPkOk:vector(packetBytes)  ETV
attr interpolationmode  none
attr source  rxPkOk
attr title  "packets received OK, vector(packetBytes)"
vector 33  TCP_t.client1.ppp[0].ppp  passedUpPk:vector(packetBytes)  ETV
attr interpolationmode  none
attr source  packetSentToUpper
attr title  "packets passed to higher layer, vector(packetBytes)"
vector 276  TCP_t.client1.tcp  "rcvd seq"  ETV
vector 277  TCP_t.client1.tcp  "rcvd ack"  ETV
vector 271  TCP_t.client1.tcp  "send window"  ETV
vector 15  TCP_t.client1.tcpApp[0]  sentPk:vector(packetBytes)  ETV
attr interpolationmode  none
attr source  sentPk
attr title  "packets sent, vector(packetBytes)"
vector 274  TCP_t.client1.tcp  "sent seq"  ETV
vector 278  TCP_t.client1.tcp  "unacked bytes"  ETV
vector 230  TCP_t.server1.tcp  "unacked bytes"  ETV
vector 231  TCP_t.server1.tcp  "rcvd dupAcks"  ETV
vector 86  TCP_t.server1.tcpApp[0]  rcvdPk:vector(packetBytes)  ETV
attr interpolationmode  none
attr source  rcvdPk
attr title  "packets received, vector(packetBytes)"
vector 88  TCP_t.server1.tcpApp[0]  endToEndDelay:vector  ETV
attr interpolationmode  none
attr source  messageAge(rcvdPk)
attr title  "end-to-end delay, vector"
attr unit  s
vector 87  TCP_t.server1.tcpApp[0]  sentPk:vector(packetBytes)  ETV
attr interpolationmode  none
attr source  sentPk
attr title  "packets sent, vector(packetBytes)"
vector 226  TCP_t.server1.tcp  "sent seq"  ETV
vector 290  TCP_t.client1.tcp  "measured RTT"  ETV
vector 291  TCP_t.client1.tcp  "smoothed RTT"  ETV
vector 292  TCP_t.client1.tcp  RTTVAR  ETV
vector 293  TCP_t.client1.tcp  RTO  ETV
vector 288  TCP_t.client1.tcp  cwnd  ETV
vector 279  TCP_t.client1.tcp  "rcvd dupAcks"  ETV
vector 14  TCP_t.client1.tcpApp[0]  rcvdPk:vector(packetBytes)  ETV
attr interpolationmode  none
attr source  rcvdPk
attr title  "packets received, vector(packetBytes)"
vector 16  TCP_t.client1.tcpApp[0]  endToEndDelay:vector  ETV
attr interpolationmode  none
attr source  messageAge(rcvdPk)
attr title  "end-to-end delay, vector"
attr unit  s
vector 242  TCP_t.server1.tcp  "measured RTT"  ETV
vector 243  TCP_t.server1.tcp  "smoothed RTT"  ETV
vector 244  TCP_t.server1.tcp  RTTVAR  ETV
vector 245  TCP_t.server1.tcp  RTO  ETV
vector 240  TCP_t.server1.tcp  cwnd  ETV
240	19499 46 202 267 0.0070275 0.0081561 2 2904 4356 7260 27407952
242	19545 28 202 202 0.0070275 0.0070275 1 0.0048466 0.0048466 0.0048466 2.348953156e-05
243	19573 30 202 202 0.0070275 0.0070275 1 0.000605825 0.000605825 0.000605825 3.67023930625e-07
244	19603 30 202 202 0.0070275 0.0070275 1 0.656855825 0.656855825 0.656855825 0.43145957483643
245	19633 30 202 202 0.0070275 0.0070275 1 2.628029125 2.628029125 2.628029125 6.9065370818483
223	19663 95 58 267 0.0004083 0.0081561 4 65535 65535 262140 17179344900
224	19758 119 58 215 0.0004083 0.0072155 5 65535 65535 327675 21474181125
225	19877 142 58 215 0.0004083 0.0072155 6 65536 65637 393618 25822535122
226	20019 22 140 140 0.0021809 0.0021809 1 103 103 103 10609
227	20041 107 58 215 0.0004083 0.0072155 5 1 102 407 41211
228	20148 125 58 267 0.0004083 0.0081561 6 0 102 306 30808
229	20273 129 58 267 0.0004083 0.0081561 6 0 604 2016 1113252
230	20402 102 122 267 0.0011929 0.0081561 5 0 500 501 250001
231	20504 80 137 267 0.0021809 0.0081561 4 0 0 0 0
238	20584 119 58 215 0.0004083 0.0072155 6 0 0 0 0
vector 358  TCP_t.client2.tcp  tcpRcvQueueBytes  ETV
vector 345  TCP_t.client2.tcp  "advertised window"  ETV
vector 344  TCP_t.client2.tcp  "receive window"  ETV
vector 347  TCP_t.client2.tcp  "sent ack"  ETV
vector 221  TCP_t.server2.ppp[0].outputHook[0]  "thruput (bit/sec)"  ETV
vector 222  TCP_t.server2.ppp[0].outputHook[0]  packet/sec  ETV
vector 348  TCP_t.client2.tcp  "rcvd seq"  ETV
vector 349  TCP_t.client2.tcp  "rcvd ack"  ETV
344	21143 24 270 270 1.0007746 1.0007746 1 65535 65535 65535 4294836225
345	21167 24 270 270 1.0007746 1.0007746 1 65535 65535 65535 4294836225
347	21191 20 270 270 1.0007746 1.0007746 1 0 0 0 0
348	21211 20 305 305 1.0013992 1.0013992 1 0 0 0 0
349	21231 25 305 305 1.0013992 1.0013992 1 250194 250194 250194 62597037636
358	21256 20 270 270 1.0007746 1.0007746 1 0 0 0 0
vector 382  TCP_t.client1.tcp  tcpRcvQueueBytes  ETV
vector 369  TCP_t.client1.tcp  "advertised window"  ETV
vector 368  TCP_t.client1.tcp  "receive window"  ETV
vector 371  TCP_t.client1.tcp  "sent ack"  ETV
vector 324  TCP_t.server1.tcp  "rcvd seq"  ETV
vector 325  TCP_t.server1.tcp  "rcvd ack"  ETV
vector 321  TCP_t.server1.tcp  "advertised window"  ETV
vector 319  TCP_t.server1.tcp  "send window"  ETV
vector 334  TCP_t.server1.tcp  tcpRcvQueueBytes  ETV
vector 320  TCP_t.server1.tcp  "receive window"  ETV
vector 323  TCP_t.server1.tcp  "sent ack"  ETV
vector 219  TCP_t.server1.ppp[0].outputHook[0]  "thruput (bit/sec)"  ETV
vector 220  TCP_t.server1.ppp[0].outputHook[0]  packet/sec  ETV
vector 372  TCP_t.client1.tcp  "rcvd seq"  ETV
vector 373  TCP_t.client1.tcp  "rcvd ack"  ETV
vector 367  TCP_t.client1.tcp  "send window"  ETV
vector 370  TCP_t.client1.tcp  "sent seq"  ETV
vector 374  TCP_t.client1.tcp  "unacked bytes"  ETV
vector 326  TCP_t.server1.tcp  "unacked bytes"  ETV
vector 327  TCP_t.server1.tcp  "rcvd dupAcks"  ETV
vector 322  TCP_t.server1.tcp  "sent seq"  ETV
vector 386  TCP_t.client1.tcp  "measured RTT"  ETV
vector 387  TCP_t.client1.tcp  "smoothed RTT"  ETV
vector 388  TCP_t.client1.tcp  RTTVAR  ETV
vector 389  TCP_t.client1.tcp  RTO  ETV
vector 384  TCP_t.client1.tcp  cwnd  ETV
vector 375  TCP_t.client1.tcp  "rcvd dupAcks"  ETV
vector 338  TCP_t.server1.tcp  "measured RTT"  ETV
vector 339  TCP_t.server1.tcp  "smoothed RTT"  ETV
vector 340  TCP_t.server1.tcp  RTTVAR  ETV
vector 341  TCP_t.server1.tcp  RTO  ETV
vector 336  TCP_t.server1.tcp  cwnd  ETV
336	22871 46 446 511 1.0148073 1.0159359 2 2904 4356 7260 27407952
338	22917 28 446 446 1.0148073 1.0148073 1 0.0048466 0.0048466 0.0048466 2.348953156e-05
339	22945 30 446 446 1.0148073 1.0148073 1 0.000605825 0.000605825 0.000605825 3.67023930625e-07
340	22975 30 446 446 1.0148073 1.0148073 1 0.656855825 0.656855825 0.656855825 0.43145957483643
341	23005 30 446 446 1.0148073 1.0148073 1 2.628029125 2.628029125 2.628029125 6.9065370818483
319	23035 96 326 511 1.0081881 1.0159359 4 65535 65535 262140 17179344900
320	23131 120 326 459 1.0081881 1.0149953 5 65535 65535 327675 21474181125
321	23251 150 326 459 1.0081881 1.0149953 6 317480 317581 1905282 605016596722
322	23401 25 384 384 1.0099607 1.0099607 1 252048 252048 252048 63528194304
323	23426 125 326 459 1.0081881 1.0149953 5 251945 252046 1260127 317584019307
324	23551 150 326 511 1.0081881 1.0159359 6 251944 252046 1511970 381008895352
325	23701 145 326 511 1.0081881 1.0159359 6 0 252549 1261741 318398370617
326	23846 102 366 511 1.0089727 1.0159359 5 0 500 501 250001
327	23948 80 381 511 1.0099607 1.0159359 4 0 0 0 0
334	24028 120 326 459 1.0081881 1.0149953 6 0 0 0 0
vector 430  TCP_t.client2.tcp  tcpRcvQueueBytes  ETV
vector 417  TCP_t.client2.tcp  "advertised window"  ETV
vector 416  TCP_t.client2.tcp  "receive window"  ETV
vector 419  TCP_t.client2.tcp  "sent ack"  ETV
vector 420  TCP_t.client2.tcp  "rcvd seq"  ETV
vector 421  TCP_t.client2.tcp  "rcvd ack"  ETV
416	24451 24 514 514 2.0013992 2.0013992 1 65535 65535 65535 4294836225
417	24475 24 514 514 2.0013992 2.0013992 1 65535 65535 65535 4294836225
419	24499 20 514 514 2.0013992 2.0013992 1 0 0 0 0
420	24519 20 549 549 2.0020238 2.0020238 1 0 0 0 0
421	24539 25 549 549 2.0020238 2.0020238 1 500350 500350 500350 250350122500
430	24564 20 514 514 2.0013992 2.0013992 1 0 0 0 0
vector 454  TCP_t.client1.tcp  tcpRcvQueueBytes  ETV
vector 441  TCP_t.client1.tcp  "advertised window"  ETV
vector 440  TCP_t.client1.tcp  "receive window"  ETV
vector 443  TCP_t.client1.tcp  "sent ack"  ETV
vector 396  TCP_t.server1.tcp  "rcvd seq"  ETV
vector 397  TCP_t.server1.tcp  "rcvd ack"  ETV
vector 393  TCP_t.server1.tcp  "advertised window"  ETV
vector 391  TCP_t.server1.tcp  "send window"  ETV
vector 406  TCP_t.server1.tcp  tcpRcvQueueBytes  ETV
vector 392  TCP_t.server1.tcp  "receive window"  ETV
vector 395  TCP_t.server1.tcp  "sent ack"  ETV
vector 444  TCP_t.client1.tcp  "rcvd seq"  ETV
vector 445  TCP_t.client1.tcp  "rcvd ack"  ETV
vector 439  TCP_t.client1.tcp  "send window"  ETV
vector 442  TCP_t.client1.tcp  "sent seq"  ETV
vector 446  TCP_t.client1.tcp  "unacked bytes"  ETV
vector 398  TCP_t.server1.tcp  "unacked bytes"  ETV
vector 399  TCP_t.server1.tcp  "rcvd dupAcks"  ETV
vector 394  TCP_t.server1.tcp  "sent seq"  ETV
vector 458  TCP_t.client1.tcp  "measured RTT"  ETV
vector 459  TCP_t.client1.tcp  "smoothed RTT"  ETV
vector 460  TCP_t.client1.tcp  RTTVAR  ETV
vector 461  TCP_t.client1.tcp  RTO  ETV
vector 456  TCP_t.client1.tcp  cwnd  ETV
vector 447  TCP_t.client1.tcp  "rcvd dupAcks"  ETV
vector 410  TCP_t.server1.tcp  "measured RTT"  ETV
vector 411  TCP_t.server1.tcp  "smoothed RTT"  ETV
vector 412  TCP_t.server1.tcp  RTTVAR  ETV
vector 413  TCP_t.server1.tcp  RTO  ETV
vector 408  TCP_t.server1.tcp  cwnd  ETV
408	26042 46 690 755 2.0225871 2.0237157 2 2904 4356 7260 27407952
410	26088 28 690 690 2.0225871 2.0225871 1 0.0048466 0.0048466 0.0048466 2.348953156e-05
411	26116 30 690 690 2.0225871 2.0225871 1 0.000605825 0.000605825 0.000605825 3.67023930625e-07