file 10268 1465509796                                           
version 2
run General-0-20160609-15:02:59-6073
attr c1ber 0
attr c2ber 0
attr configname General
attr datetime 20160609-15:02:59
attr experiment General
attr inifile omnetpp.ini
attr iterationvars "$c1ber=0, $c2ber=0"
attr iterationvars2 "$c1ber=0, $c2ber=0, $repetition=0"
attr measurement "$c1ber=0, $c2ber=0"
attr network TCP_t
attr processid 6073
attr repetition 0
attr replication #0
attr resultdir results
attr runnumber 0
attr seedset 0

vector 0  TCP_t.client1.pppg$o[0].channel  busy:vector  ETV
attr interpolationmode  sample-hold
attr source  channelBusy
vector 2  TCP_t.client2.pppg$o[0].channel  busy:vector  ETV
attr interpolationmode  sample-hold
attr source  channelBusy
vector 4  TCP_t.client3.pppg$o[0].channel  busy:vector  ETV
attr interpolationmode  sample-hold
attr source  channelBusy
vector 6  TCP_t.client4.pppg$o[0].channel  busy:vector  ETV
attr interpolationmode  sample-hold
attr source  channelBusy
vector 11  TCP_t.server1.pppg$o[0].channel  busy:vector  ETV
attr interpolationmode  sample-hold
attr source  channelBusy
vector 13  TCP_t.server2.pppg$o[0].channel  busy:vector  ETV
attr interpolationmode  sample-hold
attr source  channelBusy
vector 1  TCP_t.router1.pppg$o[0].channel  busy:vector  ETV
attr interpolationmode  sample-hold
attr source  channelBusy
vector 3  TCP_t.router1.pppg$o[1].channel  busy:vector  ETV
attr interpolationmode  sample-hold
attr source  channelBusy
vector 5  TCP_t.router1.pppg$o[2].channel  busy:vector  ETV
attr interpolationmode  sample-hold
attr source  channelBusy
vector 7  TCP_t.router1.pppg$o[3].channel  busy:vector  ETV
attr interpolationmode  sample-hold
attr source  channelBusy
vector 8  TCP_t.router1.pppg$o[4].channel  busy:vector  ETV
attr interpolationmode  sample-hold
attr source  channelBusy
vector 9  TCP_t.router2.pppg$o[0].channel  busy:vector  ETV
attr interpolationmode  sample-hold
attr source  channelBusy
vector 10  TCP_t.router2.pppg$o[1].channel  busy:vector  ETV
attr interpolationmode  sample-hold
attr source  channelBusy
vector 12  TCP_t.router2.pppg$o[2].channel  busy:vector  ETV
attr interpolationmode  sample-hold
attr source  channelBusy
vector 26  TCP_t.client1.ppp[0].queue  queueLength:vector  ETV
attr interpolationmode  sample-hold
attr title  "queue length, vector"
vector 27  TCP_t.client1.ppp[0].ppp  txState:vector  ETV
attr interpolationmode  sample-hold
attr title  "tx state, vector"
vector 46  TCP_t.client2.ppp[0].queue  queueLength:vector  ETV
attr interpolationmode  sample-hold
attr title  "queue length, vector"
vector 47  TCP_t.client2.ppp[0].ppp  txState:vector  ETV
attr interpolationmode  sample-hold
attr title  "tx state, vector"
vector 62  TCP_t.client3.ppp[0].queue  queueLength:vector  ETV
attr interpolationmode  sample-hold
attr title  "queue length, vector"
vector 63  TCP_t.client3.ppp[0].ppp  txState:vector  ETV
attr interpolationmode  sample-hold
attr title  "tx state, vector"
vector 78  TCP_t.client4.ppp[0].queue  queueLength:vector  ETV
attr interpolationmode  sample-hold
attr title  "queue length, vector"
vector 79  TCP_t.client4.ppp[0].ppp  txState:vector  ETV
attr interpolationmode  sample-hold
attr title  "tx state, vector"
vector 97  TCP_t.server1.ppp[0].queue  queueLength:vector  ETV
attr interpolationmode  sample-hold
attr title  "queue length, vector"
vector 98  TCP_t.server1.ppp[0].ppp  txState:vector  ETV
attr interpolationmode  sample-hold
attr title  "tx state, vector"
vector 113  TCP_t.server2.ppp[0].queue  queueLength:vector  ETV
attr interpolationmode  sample-hold
attr title  "queue length, vector"
vector 114  TCP_t.server2.ppp[0].ppp  txState:vector  ETV
attr interpolationmode  sample-hold
attr title  "tx state, vector"
vector 129  TCP_t.router1.ppp[0].queue  queueLength:vector  ETV
attr interpolationmode  sample-hold
attr title  "queue length, vector"
vector 130  TCP_t.router1.ppp[0].ppp  txState:vector  ETV
attr interpolationmode  sample-hold
attr title  "tx state, vector"
vector 140  TCP_t.router1.ppp[1].queue  queueLength:vector  ETV
attr interpolationmode  sample-hold
attr title  "queue length, vector"
vector 141  TCP_t.router1.ppp[1].ppp  txState:vector  ETV
attr interpolationmode  sample-hold
attr title  "tx state, vector"
vector 151  TCP_t.router1.ppp[2].queue  queueLength:vector  ETV
attr interpolationmode  sample-hold
attr title  "queue length, vector"
vector 152  TCP_t.router1.ppp[2].ppp  txState:vector  ETV
attr interpolationmode  sample-hold
attr title  "tx state, vector"
vector 162  TCP_t.router1.ppp[3].queue  queueLength:vector  ETV
attr interpolationmode  sample-hold
attr title  "queue length, vector"
vector 163  TCP_t.router1.ppp[3].ppp  txState:vector  ETV
attr interpolationmode  sample-hold
attr title  "tx state, vector"
vector 173  TCP_t.router1.ppp[4].queue  queueLength:vector  ETV
attr interpolationmode  sample-hold
attr title  "queue length, vector"
vector 174  TCP_t.router1.ppp[4].ppp  txState:vector  ETV
attr interpolationmode  sample-hold
attr title  "tx state, vector"
vector 189  TCP_t.router2.ppp[0].queue  queueLength:vector  ETV
attr interpolationmode  sample-hold
attr title  "queue length, vector"
vector 190  TCP_t.router2.ppp[0].ppp  txState:vector  ETV
attr interpolationmode  sample-hold
attr title  "tx state, vector"
vector 200  TCP_t.router2.ppp[1].queue  queueLength:vector  ETV
attr interpolationmode  sample-hold
attr title  "queue length, vector"
vector 201  TCP_t.router2.ppp[1].ppp  txState:vector  ETV
attr interpolationmode  sample-hold
attr title  "tx state, vector"
vector 211  TCP_t.router2.ppp[2].queue  queueLength:vector  ETV
attr interpolationmode  sample-hold
attr title  "queue length, vector"
vector 212  TCP_t.router2.ppp[2].ppp  txState:vector  ETV
attr interpolationmode  sample-hold
attr title  "tx state, vector"
vector 17  TCP_t.client1.tcpApp[0]  numActiveSessions:vector  ETV
attr interpolationmode  sample-hold
attr source  sum(connect)
attr title  "number of active sessions, vector"
vector 37  TCP_t.client2.tcpApp[0]  numActiveSessions:vector  ETV
attr interpolationmode  sample-hold
attr source  sum(connect)
attr title  "number of active sessions, vector"
vector 286  TCP_t.client1.tcp  tcpRcvQueueBytes  ETV
vector 273  TCP_t.client1.tcp  "advertised window"  ETV
vector 272  TCP_t.client1.tcp  "receive window"  ETV
vector 275  TCP_t.client1.tcp  "sent ack"  ETV
vector 310  TCP_t.client2.tcp  tcpRcvQueueBytes  ETV
vector 297  TCP_t.client2.tcp  "advertised window"  ETV
vector 296  TCP_t.client2.tcp  "receive window"  ETV
vector 299  TCP_t.client2.tcp  "sent ack"  ETV
vector 23  TCP_t.client1.ppp[0].queue  rcvdPk:vector(packetBytes)  ETV
attr interpolationmode  none
attr title  "received packets, vector(packetBytes)"
vector 25  TCP_t.client1.ppp[0].queue  queueingTime:vector  ETV
attr interpolationmode  none
attr title  "queueing time, vector"
vector 43  TCP_t.client2.ppp[0].queue  rcvdPk:vector(packetBytes)  ETV
attr interpolationmode  none
attr title  "received packets, vector(packetBytes)"
vector 45  TCP_t.client2.ppp[0].queue  queueingTime:vector  ETV
attr interpolationmode  none
attr title  "queueing time, vector"
vector 32  TCP_t.client1.ppp[0].ppp  rcvdPkFromHL:vector(packetBytes)  ETV
attr interpolationmode  none
attr source  packetReceivedFromUpper
attr title  "packets received from higher layer, vector(packetBytes)"
vector 28  TCP_t.client1.ppp[0].ppp  txPk:vector(packetBytes)  ETV
attr interpolationmode  none
attr source  packetSentToLower
attr title  "packets transmitted, vector(packetBytes)"
vector 52  TCP_t.client2.ppp[0].ppp  rcvdPkFromHL:vector(packetBytes)  ETV
attr interpolationmode  none
attr source  packetReceivedFromUpper
attr title  "packets received from higher layer, vector(packetBytes)"
vector 48  TCP_t.client2.ppp[0].ppp  txPk:vector(packetBytes)  ETV
attr interpolationmode  none
attr source  packetSentToLower
attr title  "packets transmitted, vector(packetBytes)"
vector 132  TCP_t.router1.ppp[0].ppp  rxPkOk:vector(packetBytes)  ETV
attr interpolationmode  none
attr source  rxPkOk
attr title  "packets received OK, vector(packetBytes)"
vector 136  TCP_t.router1.ppp[0].ppp  passedUpPk:vector(packetBytes)  ETV
attr interpolationmode  none
attr source  packetSentToUpper
attr title  "packets passed to higher layer, vector(packetBytes)"
vector 143  TCP_t.router1.ppp[1].ppp  rxPkOk:vector(packetBytes)  ETV
attr interpolationmode  none
attr source  rxPkOk
attr title  "packets received OK, vector(packetBytes)"
vector 147  TCP_t.router1.ppp[1].ppp  passedUpPk:vector(packetBytes)  ETV
attr interpolationmode  none
attr source  packetSentToUpper
attr title  "packets passed to higher layer, vector(packetBytes)"
vector 170  TCP_t.router1.ppp[4].queue  rcvdPk:vector(packetBytes)  ETV
attr interpolationmode  none
attr title  "received packets, vector(packetBytes)"
vector 172  TCP_t.router1.ppp[4].queue  queueingTime:vector  ETV
attr interpolationmode  none
attr title  "queueing time, vector"
vector 179  TCP_t.router1.ppp[4].ppp  rcvdPkFromHL:vector(packetBytes)  ETV
attr interpolationmode  none
attr source  packetReceivedFromUpper
attr title  "packets received from higher layer, vector(packetBytes)"
vector 175  TCP_t.router1.ppp[4].ppp  txPk:vector(packetBytes)  ETV
attr interpolationmode  none
attr source  packetSentToLower
attr title  "packets transmitted, vector(packetBytes)"
0	9317 33 0 33 0 0.000204 3 0 1 1 1
1	9350 8 0 0 0 0 1 0 0 0 0
2	9358 33 0 34 0 0.000204 3 0 1 1 1
3	9391 8 0 0 0 0 1 0 0 0 0
4	9399 8 0 0 0 0 1 0 0 0 0
5	9407 8 0 0 0 0 1 0 0 0 0
6	9415 8 0 0 0 0 1 0 0 0 0
7	9423 8 0 0 0 0 1 0 0 0 0
8	9431 42 0 43 0 0.0003061 3 0 1 1 1
9	9473 8 0 0 0 0 1 0 0 0 0
10	9481 9 0 0 0 0 1 0 0 0 0
11	9490 9 0 0 0 0 1 0 0 0 0
12	9499 9 0 0 0 0 1 0 0 0 0
13	9508 9 0 0 0 0 1 0 0 0 0
17	9517 10 23 23 0 0 1 1 1 1 1
23	9527 11 31 31 0 0 1 44 44 44 1936
25	9538 10 31 31 0 0 1 0 0 0 0
26	9548 9 0 0 0 0 1 0 0 0 0
27	9557 36 0 35 0 0.000204 3 0 1 1 1
28	9593 11 33 33 0 0 1 51 51 51 2601
32	9604 11 33 33 0 0 1 44 44 44 1936
37	9615 10 24 24 0 0 1 1 1 1 1
43	9625 11 32 32 0 0 1 44 44 44 1936
45	9636 10 32 32 0 0 1 0 0 0 0
46	9646 9 0 0 0 0 1 0 0 0 0
47	9655 36 0 36 0 0.000204 3 0 1 1 1
48	9691 11 34 34 0 0 1 51 51 51 2601
52	9702 11 34 34 0 0 1 44 44 44 1936
62	9713 9 0 0 0 0 1 0 0 0 0
63	9722 9 0 0 0 0 1 0 0 0 0
78	9731 9 0 0 0 0 1 0 0 0 0
79	9740 9 0 0 0 0 1 0 0 0 0
97	9749 9 0 0 0 0 1 0 0 0 0
98	9758 9 0 0 0 0 1 0 0 0 0
113	9767 10 0 0 0 0 1 0 0 0 0
114	9777 10 0 0 0 0 1 0 0 0 0
129	9787 10 0 0 0 0 1 0 0 0 0
130	9797 10 0 0 0 0 1 0 0 0 0
132	9807 20 37 37 0.0002041 0.0002041 1 51 51 51 2601
136	9827 20 37 37 0.0002041 0.0002041 1 44 44 44 1936
140	9847 10 0 0 0 0 1 0 0 0 0
141	9857 10 0 0 0 0 1 0 0 0 0
143	9867 20 38 38 0.0002041 0.0002041 1 51 51 51 2601
147	9887 20 38 38 0.0002041 0.0002041 1 44 44 44 1936
151	9907 10 0 0 0 0 1 0 0 0 0
152	9917 10 0 0 0 0 1 0 0 0 0
162	9927 10 0 0 0 0 1 0 0 0 0
163	9937 10 0 0 0 0 1 0 0 0 0
170	9947 40 41 42 0.0002041 0.0002041 2 44 44 88 3872
172	9987 19 41 41 0.0002041 0.0002041 1 0 0 0 0
173	10006 29 0 42 0 0.0002041 2 0 1 1 1
174	10035 29 0 43 0 0.0002041 2 0 1 1 1
175	10064 20 43 43 0.0002041 0.0002041 1 51 51 51 2601
179	10084 20 43 43 0.0002041 0.0002041 1 44 44 44 1936
189	10104 10 0 0 0 0 1 0 0 0 0
190	10114 10 0 0 0 0 1 0 0 0 0
200	10124 10 0 0 0 0 1 0 0 0 0
201	10134 10 0 0 0 0 1 0 0 0 0
211	10144 10 0 0 0 0 1 0 0 0 0
212	10154 10 0 0 0 0 1 0 0 0 0
272	10164 15 27 27 0 0 1 65535 65535 65535 4294836225
273	10179 15 27 27 0 0 1 65535 65535 65535 4294836225
275	10194 11 27 27 0 0 1 0 0 0 0
286	10205 11 27 27 0 0 1 0 0 0 0
296	10216 15 28 28 0 0 1 65535 65535 65535 4294836225
297	10231 15 28 28 0 0 1 65535 65535 65535 4294836225
299	10246 11 28 28 0 0 1 0 0 0 0
310	10257 11 28 28 0 0 1 0 0 0 0
