file 6161 1484074511                                            
version 2
run General-0-20170110-10:54:11-11176
attr c1ber 0
attr c2ber 0
attr configname General
attr datetime 20170110-10:54:11
attr experiment General
attr inifile omnetpp.ini
attr iterationvars "$c1ber=0, $c2ber=0"
attr iterationvars2 "$c1ber=0, $c2ber=0, $repetition=0"
attr measurement "$c1ber=0, $c2ber=0"
attr network TCP_t
attr processid 11176
attr repetition 0
attr replication #0
attr resultdir results
attr runnumber 0
attr seedset 0

vector 0  TCP_t.client1.pppg$o[0].channel  busy:vector  ETV
attr interpolationmode  sample-hold
attr source  channelBusy
vector 2  TCP_t.client2.pppg$o[0].channel  busy:vector  ETV
attr interpolationmode  sample-hold
attr source  channelBusy
vector 4  TCP_t.client3.pppg$o[0].channel  busy:vector  ETV
attr interpolationmode  sample-hold
attr source  channelBusy
vector 6  TCP_t.client4.pppg$o[0].channel  busy:vector  ETV
attr interpolationmode  sample-hold
attr source  channelBusy
vector 11  TCP_t.server1.pppg$o[0].channel  busy:vector  ETV
attr interpolationmode  sample-hold
attr source  channelBusy
vector 13  TCP_t.server2.pppg$o[0].channel  busy:vector  ETV
attr interpolationmode  sample-hold
attr source  channelBusy
vector 1  TCP_t.router1.pppg$o[0].channel  busy:vector  ETV
attr interpolationmode  sample-hold
attr source  channelBusy
vector 3  TCP_t.router1.pppg$o[1].channel  busy:vector  ETV
attr interpolationmode  sample-hold
attr source  channelBusy
vector 5  TCP_t.router1.pppg$o[2].channel  busy:vector  ETV
attr interpolationmode  sample-hold
attr source  channelBusy
vector 7  TCP_t.router1.pppg$o[3].channel  busy:vector  ETV
attr interpolationmode  sample-hold
attr source  channelBusy
vector 8  TCP_t.router1.pppg$o[4].channel  busy:vector  ETV
attr interpolationmode  sample-hold
attr source  channelBusy
vector 9  TCP_t.router2.pppg$o[0].channel  busy:vector  ETV
attr interpolationmode  sample-hold
attr source  channelBusy
vector 10  TCP_t.router2.pppg$o[1].channel  busy:vector  ETV
attr interpolationmode  sample-hold
attr source  channelBusy
vector 12  TCP_t.router2.pppg$o[2].channel  busy:vector  ETV
attr interpolationmode  sample-hold
attr source  channelBusy
vector 26  TCP_t.client1.ppp[0].queue  queueLength:vector  ETV
attr interpolationmode  sample-hold
attr title  "queue length, vector"
vector 27  TCP_t.client1.ppp[0].ppp  txState:vector  ETV
attr interpolationmode  sample-hold
attr title  "tx state, vector"
vector 46  TCP_t.client2.ppp[0].queue  queueLength:vector  ETV
attr interpolationmode  sample-hold
attr title  "queue length, vector"
vector 47  TCP_t.client2.ppp[0].ppp  txState:vector  ETV
attr interpolationmode  sample-hold
attr title  "tx state, vector"
vector 62  TCP_t.client3.ppp[0].queue  queueLength:vector  ETV
attr interpolationmode  sample-hold
attr title  "queue length, vector"
vector 63  TCP_t.client3.ppp[0].ppp  txState:vector  ETV
attr interpolationmode  sample-hold
attr title  "tx state, vector"
vector 78  TCP_t.client4.ppp[0].queue  queueLength:vector  ETV
attr interpolationmode  sample-hold
attr title  "queue length, vector"
vector 79  TCP_t.client4.ppp[0].ppp  txState:vector  ETV
attr interpolationmode  sample-hold
attr title  "tx state, vector"
vector 97  TCP_t.server1.ppp[0].queue  queueLength:vector  ETV
attr interpolationmode  sample-hold
attr title  "queue length, vector"
vector 98  TCP_t.server1.ppp[0].ppp  txState:vector  ETV
attr interpolationmode  sample-hold
attr title  "tx state, vector"
vector 113  TCP_t.server2.ppp[0].queue  queueLength:vector  ETV
attr interpolationmode  sample-hold
attr title  "queue length, vector"
vector 114  TCP_t.server2.ppp[0].ppp  txState:vector  ETV
attr interpolationmode  sample-hold
attr title  "tx state, vector"
vector 129  TCP_t.router1.ppp[0].queue  queueLength:vector  ETV
attr interpolationmode  sample-hold
attr title  "queue length, vector"
vector 130  TCP_t.router1.ppp[0].ppp  txState:vector  ETV
attr interpolationmode  sample-hold
attr title  "tx state, vector"
vector 140  TCP_t.router1.ppp[1].queue  queueLength:vector  ETV
attr interpolationmode  sample-hold
attr title  "queue length, vector"
vector 141  TCP_t.router1.ppp[1].ppp  txState:vector  ETV
attr interpolationmode  sample-hold
attr title  "tx state, vector"
vector 151  TCP_t.router1.ppp[2].queue  queueLength:vector  ETV
attr interpolationmode  sample-hold
attr title  "queue length, vector"
vector 152  TCP_t.router1.ppp[2].ppp  txState:vector  ETV
attr interpolationmode  sample-hold
attr title  "tx state, vector"
vector 162  TCP_t.router1.ppp[3].queue  queueLength:vector  ETV
attr interpolationmode  sample-hold
attr title  "queue length, vector"
vector 163  TCP_t.router1.ppp[3].ppp  txState:vector  ETV
attr interpolationmode  sample-hold
attr title  "tx state, vector"
vector 173  TCP_t.router1.ppp[4].queue  queueLength:vector  ETV
attr interpolationmode  sample-hold
attr title  "queue length, vector"
vector 174  TCP_t.router1.ppp[4].ppp  txState:vector  ETV
attr interpolationmode  sample-hold
attr title  "tx state, vector"
vector 189  TCP_t.router2.ppp[0].queue  queueLength:vector  ETV
attr interpolationmode  sample-hold
attr title  "queue length, vector"
vector 190  TCP_t.router2.ppp[0].ppp  txState:vector  ETV
attr interpolationmode  sample-hold
attr title  "tx state, vector"
vector 200  TCP_t.router2.ppp[1].queue  queueLength:vector  ETV
attr interpolationmode  sample-hold
attr title  "queue length, vector"
vector 201  TCP_t.router2.ppp[1].ppp  txState:vector  ETV
attr interpolationmode  sample-hold
attr title  "tx state, vector"
vector 211  TCP_t.router2.ppp[2].queue  queueLength:vector  ETV
attr interpolationmode  sample-hold
attr title  "queue length, vector"
vector 212  TCP_t.router2.ppp[2].ppp  txState:vector  ETV
attr interpolationmode  sample-hold
attr title  "tx state, vector"
0	5775 8 0 0 0 0 1 0 0 0 0
1	5783 8 0 0 0 0 1 0 0 0 0
2	5791 8 0 0 0 0 1 0 0 0 0
3	5799 8 0 0 0 0 1 0 0 0 0
4	5807 8 0 0 0 0 1 0 0 0 0
5	5815 8 0 0 0 0 1 0 0 0 0
6	5823 8 0 0 0 0 1 0 0 0 0
7	5831 8 0 0 0 0 1 0 0 0 0
8	5839 8 0 0 0 0 1 0 0 0 0
9	5847 8 0 0 0 0 1 0 0 0 0
10	5855 9 0 0 0 0 1 0 0 0 0
11	5864 9 0 0 0 0 1 0 0 0 0
12	5873 9 0 0 0 0 1 0 0 0 0
13	5882 9 0 0 0 0 1 0 0 0 0
26	5891 9 0 0 0 0 1 0 0 0 0
27	5900 9 0 0 0 0 1 0 0 0 0
46	5909 9 0 0 0 0 1 0 0 0 0
47	5918 9 0 0 0 0 1 0 0 0 0
62	5927 9 0 0 0 0 1 0 0 0 0
63	5936 9 0 0 0 0 1 0 0 0 0
78	5945 9 0 0 0 0 1 0 0 0 0
79	5954 9 0 0 0 0 1 0 0 0 0
97	5963 9 0 0 0 0 1 0 0 0 0
98	5972 9 0 0 0 0 1 0 0 0 0
113	5981 10 0 0 0 0 1 0 0 0 0
114	5991 10 0 0 0 0 1 0 0 0 0
129	6001 10 0 0 0 0 1 0 0 0 0
130	6011 10 0 0 0 0 1 0 0 0 0
140	6021 10 0 0 0 0 1 0 0 0 0
141	6031 10 0 0 0 0 1 0 0 0 0
151	6041 10 0 0 0 0 1 0 0 0 0
152	6051 10 0 0 0 0 1 0 0 0 0
162	6061 10 0 0 0 0 1 0 0 0 0
163	6071 10 0 0 0 0 1 0 0 0 0
173	6081 10 0 0 0 0 1 0 0 0 0
174	6091 10 0 0 0 0 1 0 0 0 0
189	6101 10 0 0 0 0 1 0 0 0 0
190	6111 10 0 0 0 0 1 0 0 0 0
200	6121 10 0 0 0 0 1 0 0 0 0
201	6131 10 0 0 0 0 1 0 0 0 0
211	6141 10 0 0 0 0 1 0 0 0 0
212	6151 10 0 0 0 0 1 0 0 0 0
