version 2
run General-0-20160407-11:05:21-2626
attr configname General
attr datetime 20160407-11:05:21
attr experiment General
attr inifile omnetpp.ini
attr iterationvars ""
attr iterationvars2 $repetition=0
attr measurement ""
attr network Tcp_test
attr processid 2626
attr repetition 0
attr replication #0
attr resultdir results
attr runnumber 0
attr seedset 0

vector 23  Tcp_test.server.eth[0].queue.pauseQueue  queueLength:vector  ETV
attr interpolationmode  sample-hold
attr title  "queue length, vector"
vector 27  Tcp_test.server.eth[0].queue.dataQueue  queueLength:vector  ETV
attr interpolationmode  sample-hold
attr title  "queue length, vector"
vector 48  Tcp_test.router.eth[0].queue.pauseQueue  queueLength:vector  ETV
attr interpolationmode  sample-hold
attr title  "queue length, vector"
vector 52  Tcp_test.router.eth[0].queue.dataQueue  queueLength:vector  ETV
attr interpolationmode  sample-hold
attr title  "queue length, vector"
vector 68  Tcp_test.router.eth[1].queue.pauseQueue  queueLength:vector  ETV
attr interpolationmode  sample-hold
attr title  "queue length, vector"
vector 72  Tcp_test.router.eth[1].queue.dataQueue  queueLength:vector  ETV
attr interpolationmode  sample-hold
attr title  "queue length, vector"
vector 88  Tcp_test.router.eth[2].queue.pauseQueue  queueLength:vector  ETV
attr interpolationmode  sample-hold
attr title  "queue length, vector"
vector 92  Tcp_test.router.eth[2].queue.dataQueue  queueLength:vector  ETV
attr interpolationmode  sample-hold
attr title  "queue length, vector"
vector 121  Tcp_test.client1.eth[0].queue.pauseQueue  queueLength:vector  ETV
attr interpolationmode  sample-hold
attr title  "queue length, vector"
vector 125  Tcp_test.client1.eth[0].queue.dataQueue  queueLength:vector  ETV
attr interpolationmode  sample-hold
attr title  "queue length, vector"
vector 154  Tcp_test.client2.eth[0].queue.pauseQueue  queueLength:vector  ETV
attr interpolationmode  sample-hold
attr title  "queue length, vector"
vector 158  Tcp_test.client2.eth[0].queue.dataQueue  queueLength:vector  ETV
attr interpolationmode  sample-hold
attr title  "queue length, vector"
vector 99  Tcp_test.client1.pingApp[0]  pingTxSeq:vector  ETV
attr interpolationmode  none
attr title  "ping tx seq, vector"
vector 132  Tcp_test.client2.pingApp[0]  pingTxSeq:vector  ETV
attr interpolationmode  none
attr title  "ping tx seq, vector"
vector 198  Tcp_test.client1.tcp  tcpRcvQueueBytes  ETV
vector 185  Tcp_test.client1.tcp  "advertised window"  ETV
vector 184  Tcp_test.client1.tcp  "receive window"  ETV
vector 187  Tcp_test.client1.tcp  "sent ack"  ETV
vector 222  Tcp_test.client2.tcp  tcpRcvQueueBytes  ETV
vector 209  Tcp_test.client2.tcp  "advertised window"  ETV
vector 208  Tcp_test.client2.tcp  "receive window"  ETV
vector 211  Tcp_test.client2.tcp  "sent ack"  ETV
vector 101  Tcp_test.client1.networkLayer.arp  sentReq:vector  ETV
attr title  "ARP request sent, vector"
vector 134  Tcp_test.client2.networkLayer.arp  sentReq:vector  ETV
attr title  "ARP request sent, vector"
vector 115  Tcp_test.client1.eth[0].encap  encapPk:vector(packetBytes)  ETV
attr interpolationmode  none
attr source  encapPk
attr title  "packets encapsulated, vector(packetBytes)"
vector 148  Tcp_test.client2.eth[0].encap  encapPk:vector(packetBytes)  ETV
attr interpolationmode  none
attr source  encapPk
attr title  "packets encapsulated, vector(packetBytes)"
vector 122  Tcp_test.client1.eth[0].queue.dataQueue  rcvdPk:vector(packetBytes)  ETV
attr interpolationmode  none
attr title  "received packets, vector(packetBytes)"
vector 124  Tcp_test.client1.eth[0].queue.dataQueue  queueingTime:vector  ETV
attr interpolationmode  none
attr title  "queueing time, vector"
vector 155  Tcp_test.client2.eth[0].queue.dataQueue  rcvdPk:vector(packetBytes)  ETV
attr interpolationmode  none
attr title  "received packets, vector(packetBytes)"
vector 157  Tcp_test.client2.eth[0].queue.dataQueue  queueingTime:vector  ETV
attr interpolationmode  none
attr title  "queueing time, vector"
vector 111  Tcp_test.client1.eth[0].mac  rxPkFromHL:vector(packetBytes)  ETV
attr interpolationmode  none
attr source  rxPkFromHL
attr title  "packet bytes from higher layer, vector(packetBytes)"
vector 144  Tcp_test.client2.eth[0].mac  rxPkFromHL:vector(packetBytes)  ETV
attr interpolationmode  none
attr source  rxPkFromHL
attr title  "packet bytes from higher layer, vector(packetBytes)"
vector 106  Tcp_test.client1.eth[0].mac  txPk:vector(packetBytes)  ETV
attr interpolationmode  none
attr source  txPk
attr title  "packets transmitted, vector(packetBytes)"
vector 139  Tcp_test.client2.eth[0].mac  txPk:vector(packetBytes)  ETV
attr interpolationmode  none
attr source  txPk
attr title  "packets transmitted, vector(packetBytes)"
vector 54  Tcp_test.router.eth[1].mac  rxPkOk:vector(packetBytes)  ETV
attr interpolationmode  none
attr source  rxPkOk
attr title  "packets received OK, vector(packetBytes)"
vector 55  Tcp_test.router.eth[1].mac  passedUpPk:vector(packetBytes)  ETV
attr interpolationmode  none
attr source  packetSentToUpper
attr title  "packets passed to higher layer, vector(packetBytes)"
vector 74  Tcp_test.router.eth[2].mac  rxPkOk:vector(packetBytes)  ETV
attr interpolationmode  none
attr source  rxPkOk
attr title  "packets received OK, vector(packetBytes)"
vector 75  Tcp_test.router.eth[2].mac  passedUpPk:vector(packetBytes)  ETV
attr interpolationmode  none
attr source  packetSentToUpper
attr title  "packets passed to higher layer, vector(packetBytes)"
vector 63  Tcp_test.router.eth[1].encap  decapPk:vector(packetBytes)  ETV
attr interpolationmode  none
attr source  decapPk
attr title  "packets decapsulated, vector(packetBytes)"
vector 83  Tcp_test.router.eth[2].encap  decapPk:vector(packetBytes)  ETV
attr interpolationmode  none
attr source  decapPk
attr title  "packets decapsulated, vector(packetBytes)"
vector 29  Tcp_test.router.networkLayer.arp  sentReply:vector  ETV
attr title  "ARP replies sent, vector"
vector 62  Tcp_test.router.eth[1].encap  encapPk:vector(packetBytes)  ETV
attr interpolationmode  none
attr source  encapPk
attr title  "packets encapsulated, vector(packetBytes)"
vector 82  Tcp_test.router.eth[2].encap  encapPk:vector(packetBytes)  ETV
attr interpolationmode  none
attr source  encapPk
attr title  "packets encapsulated, vector(packetBytes)"
vector 69  Tcp_test.router.eth[1].queue.dataQueue  rcvdPk:vector(packetBytes)  ETV
attr interpolationmode  none
attr title  "received packets, vector(packetBytes)"
vector 71  Tcp_test.router.eth[1].queue.dataQueue  queueingTime:vector  ETV
attr interpolationmode  none
attr title  "queueing time, vector"
vector 89  Tcp_test.router.eth[2].queue.dataQueue  rcvdPk:vector(packetBytes)  ETV
attr interpolationmode  none
attr title  "received packets, vector(packetBytes)"
vector 91  Tcp_test.router.eth[2].queue.dataQueue  queueingTime:vector  ETV
attr interpolationmode  none
attr title  "queueing time, vector"
vector 58  Tcp_test.router.eth[1].mac  rxPkFromHL:vector(packetBytes)  ETV
attr interpolationmode  none
attr source  rxPkFromHL
attr title  "packet bytes from higher layer, vector(packetBytes)"
vector 78  Tcp_test.router.eth[2].mac  rxPkFromHL:vector(packetBytes)  ETV
attr interpolationmode  none
attr source  rxPkFromHL
attr title  "packet bytes from higher layer, vector(packetBytes)"
vector 53  Tcp_test.router.eth[1].mac  txPk:vector(packetBytes)  ETV
attr interpolationmode  none
attr source  txPk
attr title  "packets transmitted, vector(packetBytes)"
vector 73  Tcp_test.router.eth[2].mac  txPk:vector(packetBytes)  ETV
attr interpolationmode  none
attr source  txPk
attr title  "packets transmitted, vector(packetBytes)"
vector 107  Tcp_test.client1.eth[0].mac  rxPkOk:vector(packetBytes)  ETV
attr interpolationmode  none
attr source  rxPkOk
attr title  "packets received OK, vector(packetBytes)"
vector 108  Tcp_test.client1.eth[0].mac  passedUpPk:vector(packetBytes)  ETV
attr interpolationmode  none
attr source  packetSentToUpper
attr title  "packets passed to higher layer, vector(packetBytes)"
vector 140  Tcp_test.client2.eth[0].mac  rxPkOk:vector(packetBytes)  ETV
attr interpolationmode  none
attr source  rxPkOk
attr title  "packets received OK, vector(packetBytes)"
vector 141  Tcp_test.client2.eth[0].mac  passedUpPk:vector(packetBytes)  ETV
attr interpolationmode  none
attr source  packetSentToUpper
attr title  "packets passed to higher layer, vector(packetBytes)"
vector 116  Tcp_test.client1.eth[0].encap  decapPk:vector(packetBytes)  ETV
attr interpolationmode  none
attr source  decapPk
attr title  "packets decapsulated, vector(packetBytes)"
vector 149  Tcp_test.client2.eth[0].encap  decapPk:vector(packetBytes)  ETV
attr interpolationmode  none
attr source  decapPk
attr title  "packets decapsulated, vector(packetBytes)"
23	0	0	0
27	0	0	0
29	45	0.10000586	1
29	46	0.10000586	1
48	0	0	0
52	0	0	0
53	61	0.10001162	64
54	39	0.10000586	64
54	95	0.10001758	64
55	39	0.10000586	64
55	95	0.10001758	64
58	57	0.10000586	64
62	49	0.10000586	28
63	41	0.10000586	28
68	0	0	0
69	53	0.10000586	64
71	53	0.10000586	0
72	0	0	0
72	53	0.10000586	1
72	53	0.10000586	0
73	62	0.10001162	64
74	40	0.10000586	64
75	40	0.10000586	64
78	58	0.10000586	64
82	50	0.10000586	28
83	42	0.10000586	28
88	0	0	0
89	54	0.10000586	64
91	54	0.10000586	0
92	0	0	0
92	54	0.10000586	1
92	54	0.10000586	0
99	14	0.1	0
101	21	0.1	1
106	37	0.10000576	64
106	89	0.10001748	64
107	63	0.10001172	64
108	63	0.10001172	64
111	35	0.1	64
111	85	0.10001172	64
111	93	0.10001748	94
115	27	0.1	28
115	71	0.10001172	44
115	72	0.10001172	76
116	65	0.10001172	28
121	0	0	0
122	31	0.1	64
122	79	0.10001172	64
122	80	0.10001172	94
124	31	0.1	0
124	79	0.10001172	0
124	89	0.10001748	5.76e-06
125	0	0	0
125	31	0.1	1
125	31	0.1	0
125	79	0.10001172	1
125	79	0.10001172	0
125	80	0.10001172	1
125	89	0.10001748	0
132	16	0.1	0
134	23	0.1	1
139	38	0.10000576	64
139	90	0.10001748	64
140	64	0.10001172	64
141	64	0.10001172	64
144	36	0.1	64
144	86	0.10001172	64
144	94	0.10001748	94
148	28	0.1	28
148	73	0.10001172	44
148	74	0.10001172	76
149	66	0.10001172	28
154	0	0	0
155	32	0.1	64
155	81	0.10001172	64
155	82	0.10001172	94
157	32	0.1	0
157	81	0.10001172	0
157	90	0.10001748	5.76e-06
158	0	0	0
158	32	0.1	1
158	32	0.1	0
158	81	0.10001172	1
158	81	0.10001172	0
158	82	0.10001172	1
158	90	0.10001748	0
184	17	0.1	7504
185	17	0.1	7504
187	17	0.1	0
198	17	0.1	0
208	19	0.1	7504
209	19	0.1	7504
211	19	0.1	0
222	19	0.1	0
