file 784 1463695702                                             
version 2
run General-0-20160519-15:08:00-13420
attr c1ber 1e-5
attr c2ber 1e-5
attr configname General
attr datetime 20160519-15:08:00
attr experiment General
attr inifile omnetpp_router.ini
attr iterationvars "$c1ber=1e-5, $c2ber=1e-5"
attr iterationvars2 "$c1ber=1e-5, $c2ber=1e-5, $repetition=0"
attr measurement "$c1ber=1e-5, $c2ber=1e-5"
attr network router_scenario
attr processid 13420
attr repetition 0
attr replication #0
attr resultdir results
attr runnumber 0
attr seedset 0
vector 16  router_scenario.client1.ppp[0].queue  queueLength:vector  ETV
attr interpolationmode sample-hold
attr title "queue length, vector"
16	766 9 0 0 0 0 1 0 0 0 0
vector 17  router_scenario.client1.ppp[0].ppp  txState:vector  ETV
attr interpolationmode sample-hold
attr title "tx state, vector"
17	775 9 0 0 0 0 1 0 0 0 0
