file 3556 1466027284                                            
version 2
run MM1-4-20160615-10:19:54-4894
attr configname MM1
attr datetime 20160615-10:19:54
attr experiment MM1
attr inifile omnetpp.ini
attr iterationvars $mean=1.25
attr iterationvars2 "$mean=1.25, $repetition=0"
attr mean 1.25
attr measurement $mean=1.25
attr network MM1
attr processid 4894
attr repetition 0
attr replication #0
attr resultdir results
attr runnumber 4
attr seedset 4
vector 1  MM1.queue  queueLength:vector  ETV
attr interpolationmode sample-hold
attr title "queue length, vector"
1	1634 1922 0 165 0 68.093526957948 81 0 27 1090 18460
vector 0  MM1.sink  lifeTime:vector  ETV
attr interpolationmode none
attr title "lifetime of arrived jobs, vector"
attr unit s
0	638 996 4 160 5.849942369566 66.090570439423 27 1.584751970586 31.095450824523 471.12856233552 9836.5925275517
