file 675 1465411261                                             
version 2
run MM1-0-20160608-11:40:52-23379
attr configname MM1
attr datetime 20160608-11:40:52
attr experiment MM1
attr inifile omnetpp.ini
attr iterationvars $mean=10
attr iterationvars2 "$mean=10, $repetition=0"
attr mean 10
attr measurement $mean=10
attr network MM1
attr processid 23379
attr repetition 0
attr replication #0
attr resultdir results
attr runnumber 0
attr seedset 0

vector 1  MM1.queue  queueLength:vector  ETV
attr interpolationmode  sample-hold
attr title  "queue length, vector"
vector 0  MM1.sink  lifeTime:vector  ETV
attr interpolationmode  none
attr title  "lifetime of arrived jobs, vector"
attr unit  s
0	632 35 4 4 10.470606561751 10.470606561751 1 2.511861516094 2.511861516094 2.511861516094 6.309448276034
1	667 8 0 0 0 0 1 0 0 0 0
