file 2242 1460053850                                            
version 2
run General-0-20160407-11:19:26-2734
attr configname General
attr datetime 20160407-11:19:26
attr experiment General
attr inifile omnetpp.ini
attr iterationvars ""
attr iterationvars2 $repetition=0
attr measurement ""
attr network Udp_test
attr processid 2734
attr repetition 0
attr replication #0
attr resultdir results
attr runnumber 0
attr seedset 0

vector 30  Udp_test.server.eth[0].queue.pauseQueue  queueLength:vector  ETV
attr interpolationmode  sample-hold
attr title  "queue length, vector"
vector 34  Udp_test.server.eth[0].queue.dataQueue  queueLength:vector  ETV
attr interpolationmode  sample-hold
attr title  "queue length, vector"
vector 55  Udp_test.router.eth[0].queue.pauseQueue  queueLength:vector  ETV
attr interpolationmode  sample-hold
attr title  "queue length, vector"
vector 59  Udp_test.router.eth[0].queue.dataQueue  queueLength:vector  ETV
attr interpolationmode  sample-hold
attr title  "queue length, vector"
vector 75  Udp_test.router.eth[1].queue.pauseQueue  queueLength:vector  ETV
attr interpolationmode  sample-hold
attr title  "queue length, vector"
vector 79  Udp_test.router.eth[1].queue.dataQueue  queueLength:vector  ETV
attr interpolationmode  sample-hold
attr title  "queue length, vector"
vector 95  Udp_test.router.eth[2].queue.pauseQueue  queueLength:vector  ETV
attr interpolationmode  sample-hold
attr title  "queue length, vector"
vector 99  Udp_test.router.eth[2].queue.dataQueue  queueLength:vector  ETV
attr interpolationmode  sample-hold
attr title  "queue length, vector"
vector 130  Udp_test.client1.eth[0].queue.pauseQueue  queueLength:vector  ETV
attr interpolationmode  sample-hold
attr title  "queue length, vector"
vector 134  Udp_test.client1.eth[0].queue.dataQueue  queueLength:vector  ETV
attr interpolationmode  sample-hold
attr title  "queue length, vector"
vector 165  Udp_test.client2.eth[0].queue.pauseQueue  queueLength:vector  ETV
attr interpolationmode  sample-hold
attr title  "queue length, vector"
vector 169  Udp_test.client2.eth[0].queue.dataQueue  queueLength:vector  ETV
attr interpolationmode  sample-hold
attr title  "queue length, vector"
30	2130 9 0 0 0 0 1 0 0 0 0
34	2139 9 0 0 0 0 1 0 0 0 0
55	2148 9 0 0 0 0 1 0 0 0 0
59	2157 9 0 0 0 0 1 0 0 0 0
75	2166 9 0 0 0 0 1 0 0 0 0
79	2175 9 0 0 0 0 1 0 0 0 0
95	2184 9 0 0 0 0 1 0 0 0 0
99	2193 9 0 0 0 0 1 0 0 0 0
130	2202 10 0 0 0 0 1 0 0 0 0
134	2212 10 0 0 0 0 1 0 0 0 0
165	2222 10 0 0 0 0 1 0 0 0 0
169	2232 10 0 0 0 0 1 0 0 0 0
